# vtk DataFile Version 5.1
vtk output
ASCII
DATASET UNSTRUCTURED_GRID
POINTS 726 double
0 0 0 1 0 0 2 0 0 
3 0 0 4 0 0 5 0 0 
6 0 0 7 0 0 8 0 0 
9 0 0 10 0 0 0 1 0 
1 1 0 2 1 0 3 1 0 
4 1 0 5 1 0 6 1 0 
7 1 0 8 1 0 9 1 0 
10 1 0 0 2 0 1 2 0 
2 2 0 3 2 0 4 2 0 
5 2 0 6 2 0 7 2 0 
8 2 0 9 2 0 10 2 0 
0 3 0 1 3 0 2 3 0 
3 3 0 4 3 0 5 3 0 
6 3 0 7 3 0 8 3 0 
9 3 0 10 3 0 0 4 0 
1 4 0 2 4 0 3 4 0 
4 4 0 5 4 0 6 4 0 
7 4 0 8 4 0 9 4 0 
10 4 0 0 5 0 1 5 0 
2 5 0 3 5 0 4 5 0 
5 5 0 6 5 0 7 5 0 
8 5 0 9 5 0 10 5 0 
0 6 0 1 6 0 2 6 0 
3 6 0 4 6 0 5 6 0 
6 6 0 7 6 0 8 6 0 
9 6 0 10 6 0 0 7 0 
1 7 0 2 7 0 3 7 0 
4 7 0 5 7 0 6 7 0 
7 7 0 8 7 0 9 7 0 
10 7 0 0 8 0 1 8 0 
2 8 0 3 8 0 4 8 0 
5 8 0 6 8 0 7 8 0 
8 8 0 9 8 0 10 8 0 
0 9 0 1 9 0 2 9 0 
3 9 0 4 9 0 5 9 0 
6 9 0 7 9 0 8 9 0 
9 9 0 10 9 0 0 10 0 
1 10 0 2 10 0 3 10 0 
4 10 0 5 10 0 6 10 0 
7 10 0 8 10 0 9 10 0 
10 10 0 0 0 1 1 0 1 
2 0 1 3 0 1 4 0 1 
5 0 1 6 0 1 7 0 1 
8 0 1 9 0 1 10 0 1 
0 1 1 1 1 1 2 1 1 
3 1 1 4 1 1 5 1 1 
6 1 1 7 1 1 8 1 1 
9 1 1 10 1 1 0 2 1 
1 2 1 2 2 1 3 2 1 
4 2 1 5 2 1 6 2 1 
7 2 1 8 2 1 9 2 1 
10 2 1 0 3 1 1 3 1 
2 3 1 3 3 1 4 3 1 
5 3 1 6 3 1 7 3 1 
8 3 1 9 3 1 10 3 1 
0 4 1 1 4 1 2 4 1 
3 4 1 4 4 1 5 4 1 
6 4 1 7 4 1 8 4 1 
9 4 1 10 4 1 0 5 1 
1 5 1 2 5 1 3 5 1 
4 5 1 5 5 1 6 5 1 
7 5 1 8 5 1 9 5 1 
10 5 1 0 6 1 1 6 1 
2 6 1 3 6 1 4 6 1 
5 6 1 6 6 1 7 6 1 
8 6 1 9 6 1 10 6 1 
0 7 1 1 7 1 2 7 1 
3 7 1 4 7 1 5 7 1 
6 7 1 7 7 1 8 7 1 
9 7 1 10 7 1 0 8 1 
1 8 1 2 8 1 3 8 1 
4 8 1 5 8 1 6 8 1 
7 8 1 8 8 1 9 8 1 
10 8 1 0 9 1 1 9 1 
2 9 1 3 9 1 4 9 1 
5 9 1 6 9 1 7 9 1 
8 9 1 9 9 1 10 9 1 
0 10 1 1 10 1 2 10 1 
3 10 1 4 10 1 5 10 1 
6 10 1 7 10 1 8 10 1 
9 10 1 10 10 1 0 0 2 
1 0 2 2 0 2 3 0 2 
4 0 2 5 0 2 6 0 2 
7 0 2 8 0 2 9 0 2 
10 0 2 0 1 2 1 1 2 
2 1 2 3 1 2 4 1 2 
5 1 2 6 1 2 7 1 2 
8 1 2 9 1 2 10 1 2 
0 2 2 1 2 2 2 2 2 
3 2 2 4 2 2 5 2 2 
6 2 2 7 2 2 8 2 2 
9 2 2 10 2 2 0 3 2 
1 3 2 2 3 2 3 3 2 
4 3 2 5 3 2 6 3 2 
7 3 2 8 3 2 9 3 2 
10 3 2 0 4 2 1 4 2 
2 4 2 3 4 2 4 4 2 
5 4 2 6 4 2 7 4 2 
8 4 2 9 4 2 10 4 2 
0 5 2 1 5 2 2 5 2 
3 5 2 4 5 2 5 5 2 
6 5 2 7 5 2 8 5 2 
9 5 2 10 5 2 0 6 2 
1 6 2 2 6 2 3 6 2 
4 6 2 5 6 2 6 6 2 
7 6 2 8 6 2 9 6 2 
10 6 2 0 7 2 1 7 2 
2 7 2 3 7 2 4 7 2 
5 7 2 6 7 2 7 7 2 
8 7 2 9 7 2 10 7 2 
0 8 2 1 8 2 2 8 2 
3 8 2 4 8 2 5 8 2 
6 8 2 7 8 2 8 8 2 
9 8 2 10 8 2 0 9 2 
1 9 2 2 9 2 3 9 2 
4 9 2 5 9 2 6 9 2 
7 9 2 8 9 2 9 9 2 
10 9 2 0 10 2 1 10 2 
2 10 2 3 10 2 4 10 2 
5 10 2 6 10 2 7 10 2 
8 10 2 9 10 2 10 10 2 
0 0 3 1 0 3 2 0 3 
3 0 3 4 0 3 5 0 3 
6 0 3 7 0 3 8 0 3 
9 0 3 10 0 3 0 1 3 
1 1 3 2 1 3 3 1 3 
4 1 3 5 1 3 6 1 3 
7 1 3 8 1 3 9 1 3 
10 1 3 0 2 3 1 2 3 
2 2 3 3 2 3 4 2 3 
5 2 3 6 2 3 7 2 3 
8 2 3 9 2 3 10 2 3 
0 3 3 1 3 3 2 3 3 
3 3 3 4 3 3 5 3 3 
6 3 3 7 3 3 8 3 3 
9 3 3 10 3 3 0 4 3 
1 4 3 2 4 3 3 4 3 
4 4 3 5 4 3 6 4 3 
7 4 3 8 4 3 9 4 3 
10 4 3 0 5 3 1 5 3 
2 5 3 3 5 3 4 5 3 
5 5 3 6 5 3 7 5 3 
8 5 3 9 5 3 10 5 3 
0 6 3 1 6 3 2 6 3 
3 6 3 4 6 3 5 6 3 
6 6 3 7 6 3 8 6 3 
9 6 3 10 6 3 0 7 3 
1 7 3 2 7 3 3 7 3 
4 7 3 5 7 3 6 7 3 
7 7 3 8 7 3 9 7 3 
10 7 3 0 8 3 1 8 3 
2 8 3 3 8 3 4 8 3 
5 8 3 6 8 3 7 8 3 
8 8 3 9 8 3 10 8 3 
0 9 3 1 9 3 2 9 3 
3 9 3 4 9 3 5 9 3 
6 9 3 7 9 3 8 9 3 
9 9 3 10 9 3 0 10 3 
1 10 3 2 10 3 3 10 3 
4 10 3 5 10 3 6 10 3 
7 10 3 8 10 3 9 10 3 
10 10 3 0 0 4 1 0 4 
2 0 4 3 0 4 4 0 4 
5 0 4 6 0 4 7 0 4 
8 0 4 9 0 4 10 0 4 
0 1 4 1 1 4 2 1 4 
3 1 4 4 1 4 5 1 4 
6 1 4 7 1 4 8 1 4 
9 1 4 10 1 4 0 2 4 
1 2 4 2 2 4 3 2 4 
4 2 4 5 2 4 6 2 4 
7 2 4 8 2 4 9 2 4 
10 2 4 0 3 4 1 3 4 
2 3 4 3 3 4 4 3 4 
5 3 4 6 3 4 7 3 4 
8 3 4 9 3 4 10 3 4 
0 4 4 1 4 4 2 4 4 
3 4 4 4 4 4 5 4 4 
6 4 4 7 4 4 8 4 4 
9 4 4 10 4 4 0 5 4 
1 5 4 2 5 4 3 5 4 
4 5 4 5 5 4 6 5 4 
7 5 4 8 5 4 9 5 4 
10 5 4 0 6 4 1 6 4 
2 6 4 3 6 4 4 6 4 
5 6 4 6 6 4 7 6 4 
8 6 4 9 6 4 10 6 4 
0 7 4 1 7 4 2 7 4 
3 7 4 4 7 4 5 7 4 
6 7 4 7 7 4 8 7 4 
9 7 4 10 7 4 0 8 4 
1 8 4 2 8 4 3 8 4 
4 8 4 5 8 4 6 8 4 
7 8 4 8 8 4 9 8 4 
10 8 4 0 9 4 1 9 4 
2 9 4 3 9 4 4 9 4 
5 9 4 6 9 4 7 9 4 
8 9 4 9 9 4 10 9 4 
0 10 4 1 10 4 2 10 4 
3 10 4 4 10 4 5 10 4 
6 10 4 7 10 4 8 10 4 
9 10 4 10 10 4 0 0 5 
1 0 5 2 0 5 3 0 5 
4 0 5 5 0 5 6 0 5 
7 0 5 8 0 5 9 0 5 
10 0 5 0 1 5 1 1 5 
2 1 5 3 1 5 4 1 5 
5 1 5 6 1 5 7 1 5 
8 1 5 9 1 5 10 1 5 
0 2 5 1 2 5 2 2 5 
3 2 5 4 2 5 5 2 5 
6 2 5 7 2 5 8 2 5 
9 2 5 10 2 5 0 3 5 
1 3 5 2 3 5 3 3 5 
4 3 5 5 3 5 6 3 5 
7 3 5 8 3 5 9 3 5 
10 3 5 0 4 5 1 4 5 
2 4 5 3 4 5 4 4 5 
5 4 5 6 4 5 7 4 5 
8 4 5 9 4 5 10 4 5 
0 5 5 1 5 5 2 5 5 
3 5 5 4 5 5 5 5 5 
6 5 5 7 5 5 8 5 5 
9 5 5 10 5 5 0 6 5 
1 6 5 2 6 5 3 6 5 
4 6 5 5 6 5 6 6 5 
7 6 5 8 6 5 9 6 5 
10 6 5 0 7 5 1 7 5 
2 7 5 3 7 5 4 7 5 
5 7 5 6 7 5 7 7 5 
8 7 5 9 7 5 10 7 5 
0 8 5 1 8 5 2 8 5 
3 8 5 4 8 5 5 8 5 
6 8 5 7 8 5 8 8 5 
9 8 5 10 8 5 0 9 5 
1 9 5 2 9 5 3 9 5 
4 9 5 5 9 5 6 9 5 
7 9 5 8 9 5 9 9 5 
10 9 5 0 10 5 1 10 5 
2 10 5 3 10 5 4 10 5 
5 10 5 6 10 5 7 10 5 
8 10 5 9 10 5 10 10 5 

CELLS 501 4000
OFFSETS vtktypeint64
0 8 16 24 32 40 48 56 64 
72 80 88 96 104 112 120 128 136 
144 152 160 168 176 184 192 200 208 
216 224 232 240 248 256 264 272 280 
288 296 304 312 320 328 336 344 352 
360 368 376 384 392 400 408 416 424 
432 440 448 456 464 472 480 488 496 
504 512 520 528 536 544 552 560 568 
576 584 592 600 608 616 624 632 640 
648 656 664 672 680 688 696 704 712 
720 728 736 744 752 760 768 776 784 
792 800 808 816 824 832 840 848 856 
864 872 880 888 896 904 912 920 928 
936 944 952 960 968 976 984 992 1000 
1008 1016 1024 1032 1040 1048 1056 1064 1072 
1080 1088 1096 1104 1112 1120 1128 1136 1144 
1152 1160 1168 1176 1184 1192 1200 1208 1216 
1224 1232 1240 1248 1256 1264 1272 1280 1288 
1296 1304 1312 1320 1328 1336 1344 1352 1360 
1368 1376 1384 1392 1400 1408 1416 1424 1432 
1440 1448 1456 1464 1472 1480 1488 1496 1504 
1512 1520 1528 1536 1544 1552 1560 1568 1576 
1584 1592 1600 1608 1616 1624 1632 1640 1648 
1656 1664 1672 1680 1688 1696 1704 1712 1720 
1728 1736 1744 1752 1760 1768 1776 1784 1792 
1800 1808 1816 1824 1832 1840 1848 1856 1864 
1872 1880 1888 1896 1904 1912 1920 1928 1936 
1944 1952 1960 1968 1976 1984 1992 2000 2008 
2016 2024 2032 2040 2048 2056 2064 2072 2080 
2088 2096 2104 2112 2120 2128 2136 2144 2152 
2160 2168 2176 2184 2192 2200 2208 2216 2224 
2232 2240 2248 2256 2264 2272 2280 2288 2296 
2304 2312 2320 2328 2336 2344 2352 2360 2368 
2376 2384 2392 2400 2408 2416 2424 2432 2440 
2448 2456 2464 2472 2480 2488 2496 2504 2512 
2520 2528 2536 2544 2552 2560 2568 2576 2584 
2592 2600 2608 2616 2624 2632 2640 2648 2656 
2664 2672 2680 2688 2696 2704 2712 2720 2728 
2736 2744 2752 2760 2768 2776 2784 2792 2800 
2808 2816 2824 2832 2840 2848 2856 2864 2872 
2880 2888 2896 2904 2912 2920 2928 2936 2944 
2952 2960 2968 2976 2984 2992 3000 3008 3016 
3024 3032 3040 3048 3056 3064 3072 3080 3088 
3096 3104 3112 3120 3128 3136 3144 3152 3160 
3168 3176 3184 3192 3200 3208 3216 3224 3232 
3240 3248 3256 3264 3272 3280 3288 3296 3304 
3312 3320 3328 3336 3344 3352 3360 3368 3376 
3384 3392 3400 3408 3416 3424 3432 3440 3448 
3456 3464 3472 3480 3488 3496 3504 3512 3520 
3528 3536 3544 3552 3560 3568 3576 3584 3592 
3600 3608 3616 3624 3632 3640 3648 3656 3664 
3672 3680 3688 3696 3704 3712 3720 3728 3736 
3744 3752 3760 3768 3776 3784 3792 3800 3808 
3816 3824 3832 3840 3848 3856 3864 3872 3880 
3888 3896 3904 3912 3920 3928 3936 3944 3952 
3960 3968 3976 3984 3992 4000 
CONNECTIVITY vtktypeint64
0 1 12 11 121 122 133 132 1 
2 13 12 122 123 134 133 2 3 
14 13 123 124 135 134 3 4 15 
14 124 125 136 135 4 5 16 15 
125 126 137 136 5 6 17 16 126 
127 138 137 6 7 18 17 127 128 
139 138 7 8 19 18 128 129 140 
139 8 9 20 19 129 130 141 140 
9 10 21 20 130 131 142 141 11 
12 23 22 132 133 144 143 12 13 
24 23 133 134 145 144 13 14 25 
24 134 135 146 145 14 15 26 25 
135 136 147 146 15 16 27 26 136 
137 148 147 16 17 28 27 137 138 
149 148 17 18 29 28 138 139 150 
149 18 19 30 29 139 140 151 150 
19 20 31 30 140 141 152 151 20 
21 32 31 141 142 153 152 22 23 
34 33 143 144 155 154 23 24 35 
34 144 145 156 155 24 25 36 35 
145 146 157 156 25 26 37 36 146 
147 158 157 26 27 38 37 147 148 
159 158 27 28 39 38 148 149 160 
159 28 29 40 39 149 150 161 160 
29 30 41 40 150 151 162 161 30 
31 42 41 151 152 163 162 31 32 
43 42 152 153 164 163 33 34 45 
44 154 155 166 165 34 35 46 45 
155 156 167 166 35 36 47 46 156 
157 168 167 36 37 48 47 157 158 
169 168 37 38 49 48 158 159 170 
169 38 39 50 49 159 160 171 170 
39 40 51 50 160 161 172 171 40 
41 52 51 161 162 173 172 41 42 
53 52 162 163 174 173 42 43 54 
53 163 164 175 174 44 45 56 55 
165 166 177 176 45 46 57 56 166 
167 178 177 46 47 58 57 167 168 
179 178 47 48 59 58 168 169 180 
179 48 49 60 59 169 170 181 180 
49 50 61 60 170 171 182 181 50 
51 62 61 171 172 183 182 51 52 
63 62 172 173 184 183 52 53 64 
63 173 174 185 184 53 54 65 64 
174 175 186 185 55 56 67 66 176 
177 188 187 56 57 68 67 177 178 
189 188 57 58 69 68 178 179 190 
189 58 59 70 69 179 180 191 190 
59 60 71 70 180 181 192 191 60 
61 72 71 181 182 193 192 61 62 
73 72 182 183 194 193 62 63 74 
73 183 184 195 194 63 64 75 74 
184 185 196 195 64 65 76 75 185 
186 197 196 66 67 78 77 187 188 
199 198 67 68 79 78 188 189 200 
199 68 69 80 79 189 190 201 200 
69 70 81 80 190 191 202 201 70 
71 82 81 191 192 203 202 71 72 
83 82 192 193 204 203 72 73 84 
83 193 194 205 204 73 74 85 84 
194 195 206 205 74 75 86 85 195 
196 207 206 75 76 87 86 196 197 
208 207 77 78 89 88 198 199 210 
209 78 79 90 89 199 200 211 210 
79 80 91 90 200 201 212 211 80 
81 92 91 201 202 213 212 81 82 
93 92 202 203 214 213 82 83 94 
93 203 204 215 214 83 84 95 94 
204 205 216 215 84 85 96 95 205 
206 217 216 85 86 97 96 206 207 
218 217 86 87 98 97 207 208 219 
218 88 89 100 99 209 210 221 220 
89 90 101 100 210 211 222 221 90 
91 102 101 211 212 223 222 91 92 
103 102 212 213 224 223 92 93 104 
103 213 214 225 224 93 94 105 104 
214 215 226 225 94 95 106 105 215 
216 227 226 95 96 107 106 216 217 
228 227 96 97 108 107 217 218 229 
228 97 98 109 108 218 219 230 229 
99 100 111 110 220 221 232 231 100 
101 112 111 221 222 233 232 101 102 
[...]
CELL_DATA 500
SCALARS Pressure vtktypeint64
LOOKUP_TABLE default
1000 1100 1200 1300 1400 1500 1600 1700 1800 
1900 2000 2100 2200 2300 2400 2500 2600 2700 
2800 2900 3000 3100 3200 3300 3400 3500 3600 
3700 3800 3900 4000 4100 4200 4300 4400 4500 
4600 4700 4800 4900 5000 5100 5200 5300 5400 
5500 5600 5700 5800 5900 6000 6100 6200 6300 
6400 6500 6600 6700 6800 6900 7000 7100 7200 
7300 7400 7500 7600 7700 7800 7900 8000 8100 
8200 8300 8400 8500 8600 8700 8800 8900 9000 
9100 9200 9300 9400 9500 9600 9700 9800 9900 
10000 10100 10200 10300 10400 10500 10600 10700 10800 
10900 11000 11100 11200 11300 11400 11500 11600 11700 
11800 11900 12000 12100 12200 12300 12400 12500 12600 
12700 12800 12900 13000 13100 13200 13300 13400 13500 
13600 13700 13800 13900 14000 14100 14200 14300 14400 
14500 14600 14700 14800 14900 15000 15100 15200 15300 
15400 15500 15600 15700 15800 15900 16000 16100 16200 
16300 16400 16500 16600 16700 16800 16900 17000 17100 
17200 17300 17400 17500 17600 17700 17800 17900 18000 
18100 18200 18300 18400 18500 18600 18700 18800 18900 
19000 19100 19200 19300 19400 19500 19600 19700 19800 
19900 20000 20100 20200 20300 20400 20500 20600 20700 
20800 20900 21000 21100 21200 21300 21400 21500 21600 
21700 21800 21900 22000 22100 22200 22300 22400 22500 
22600 22700 22800 22900 23000 23100 23200 23300 23400 
23500 23600 23700 23800 23900 24000 24100 24200 24300 
24400 24500 24600 24700 24800 24900 25000 25100 25200 
25300 25400 25500 25600 25700 25800 25900 26000 26100 
26200 26300 26400 26500 26600 26700 26800 26900 27000 
27100 27200 27300 27400 27500 27600 27700 27800 27900 
28000 28100 28200 28300 28400 28500 28600 28700 28800 
28900 29000 29100 29200 29300 29400 29500 29600 29700 
29800 29900 30000 30100 30200 30300 30400 30500 30600 
30700 30800 30900 31000 31100 31200 31300 31400 31500 
31600 31700 31800 31900 32000 32100 32200 32300 32400 
32500 32600 32700 32800 32900 33000 33100 33200 33300 
33400 33500 33600 33700 33800 33900 34000 34100 34200 
34300 34400 34500 34600 34700 34800 34900 35000 35100 
35200 35300 35400 35500 35600 35700 35800 35900 36000 
36100 36200 36300 36400 36500 36600 36700 36800 36900 
37000 37100 37200 37300 37400 37500 37600 37700 37800 
37900 38000 38100 38200 38300 38400 38500 38600 38700 
38800 38900 39000 39100 39200 39300 39400 39500 39600 
39700 39800 39900 40000 40100 40200 40300 40400 40500 
40600 40700 40800 40900 41000 41100 41200 41300 41400 
41500 41600 41700 41800 41900 42000 42100 42200 42300 
42400 42500 42600 42700 42800 42900 43000 43100 43200 
43300 43400 43500 43600 43700 43800 43900 44000 44100 
44200 44300 44400 44500 44600 44700 44800 44900 45000 
45100 45200 45300 45400 45500 45600 45700 45800 45900 
46000 46100 46200 46300 46400 46500 46600 46700 46800 
46900 47000 47100 47200 47300 47400 47500 47600 47700 
47800 47900 48000 48100 48200 48300 48400 48500 48600 
48700 48800 48900 49000 49100 49200 49300 49400 49500 
49600 49700 49800 49900 50000 50100 50200 50300 50400 
50500 50600 50700 50800 50900 
FIELD FieldData 2
Saturation 1 500 vtktypeint64
0 1 2 3 4 5 6 7 8 
9 10 11 12 13 14 15 16 17 
18 19 20 21 22 23 24 25 26 
27 28 29 30 31 32 33 34 35 
36 37 38 39 40 41 42 43 44 
45 46 47 48 49 50 51 52 53 
54 55 56 57 58 59 60 61 62 
63 64 65 66 67 68 69 70 71 
72 73 74 75 76 77 78 79 80 
81 82 83 84 85 86 87 88 89 
90 91 92 93 94 95 96 97 98 
99 100 101 102 103 104 105 106 107 
108 109 110 111 112 113 114 115 116 
117 118 119 120 121 122 123 124 125 
126 127 128 129 130 131 132 133 134 
135 136 137 138 139 140 141 142 143 
144 145 146 147 148 149 150 151 152 
153 154 155 156 157 158 159 160 161 
162 163 164 165 166 167 168 169 170 
171 172 173 174 175 176 177 178 179 
180 181 182 183 184 185 186 187 188 
189 190 191 192 193 194 195 196 197 
198 199 200 201 202 203 204 205 206 
207 208 209 210 211 212 213 214 215 
216 217 218 219 220 221 222 223 224 
225 226 227 228 229 230 231 232 233 
234 235 236 237 238 239 240 241 242 
243 244 245 246 247 248 249 250 251 
252 253 254 255 256 257 258 259 260 
261 262 263 264 265 266 267 268 269 
270 271 272 273 274 275 276 277 278 
279 280 281 282 283 284 285 286 287 
288 289 290 291 292 293 294 295 296 
297 298 299 300 301 302 303 304 305 
306 307 308 309 310 311 312 313 314 
315 316 317 318 319 320 321 322 323 
324 325 326 327 328 329 330 331 332 
333 334 335 336 337 338 339 340 341 
342 343 344 345 346 347 348 349 350 
351 352 353 354 355 356 357 358 359 
360 361 362 363 364 365 366 367 368 
369 370 371 372 373 374 375 376 377 
378 379 380 381 382 383 384 385 386 
387 388 389 390 391 392 393 394 395 
396 397 398 399 400 401 402 403 404 
405 406 407 408 409 410 411 412 413 
414 415 416 417 418 419 420 421 422 
423 424 425 426 427 428 429 430 431 
432 433 434 435 436 437 438 439 440 
441 442 443 444 445 446 447 448 449 
450 451 452 453 454 455 456 457 458 
459 460 461 462 463 464 465 466 467 
468 469 470 471 472 473 474 475 476 
477 478 479 480 481 482 483 484 485 
486 487 488 489 490 491 492 493 494 
495 496 497 498 499 
Permeability 1 500 double
87.454011885 145.07143064 123.19939418 109.86584842 65.601864044 65.599452034 55.808361217 136.61761458 110.11150117 
120.80725778 52.05844943 146.99098522 133.24426408 71.233911068 68.182496721 68.340450985 80.424224296 102.47564316 
93.194501864 79.12291402 111.18528947 63.949386065 79.214464854 86.636184329 95.606998422 128.51759614 69.967378216 
101.42344384 109.24145689 54.645041272 110.75448519 67.052412369 56.505159299 144.88855373 146.56320331 130.83973481 
80.461376917 59.767211401 118.42330265 94.015249374 62.203823484 99.517691011 53.438852112 140.93204021 75.87799816 
116.25222844 81.171107609 102.00680212 104.67102793 68.485445553 146.95846278 127.51328234 143.94989416 139.48273504 
109.78999788 142.1874235 58.849250205 69.598286242 54.522728891 82.533033076 88.867728969 77.134903177 132.87375092 
85.675332669 78.093450969 104.26960832 64.092422497 130.21969808 57.455064368 148.68869366 127.22447693 69.871568153 
50.552211712 131.54614285 120.68573438 122.9007168 127.12703467 57.404465173 85.846572854 61.586905953 136.31034259 
112.32981268 83.089802485 56.355835029 81.098232172 82.518332203 122.96061783 113.75574714 138.72127426 97.221492516 
61.959424594 121.32447872 126.07850486 106.12771976 127.096718 99.379559636 102.27328294 92.754101836 52.541912674 
60.789142699 53.142918569 113.64104113 81.435598108 100.85706912 140.75664739 74.929222915 91.038292304 125.55511385 
72.879816549 57.697990983 78.975145291 66.122128725 142.96976523 130.81203796 113.34037565 137.14605902 130.36720769 
68.657005889 139.25589985 103.93422419 130.74401552 139.60912999 81.800347497 61.005192453 72.793516254 92.710778863 
131.80147659 136.07305833 50.695213053 101.07473026 91.741100315 72.210781047 61.986536733 83.76151714 144.29097039 
82.320293202 101.87906217 120.30189589 86.362960238 147.17820827 146.24472949 75.178229583 99.724850589 80.087830982 
78.484049438 53.688694735 110.9564334 100.26790232 55.147875125 77.864646424 140.8265886 73.956189067 64.489487209 
98.945276028 148.56504541 74.205527151 117.21355474 126.16196153 73.763754399 122.82163486 86.778313272 113.23058306 
113.35297108 103.57746841 59.028977005 133.53024956 82.078006497 68.65185104 54.077514155 109.08929432 117.75643618 
51.658782893 101.20930583 72.64957752 114.51727904 67.4366429 119.09377381 88.67353463 143.67299887 63.752094415 
84.106635105 61.347352124 142.46936183 137.73393534 75.794162772 115.9984046 131.72222002 105.52008116 102.96505784 
74.18522909 59.310276781 139.7215758 140.04180572 113.31014573 83.902979105 84.920957461 122.59556789 139.711026 
138.70864243 127.98755459 114.20316462 58.4139965 66.162871409 139.85541885 110.64290597 50.919705162 60.147154287 
116.35017691 50.506158385 66.080805142 104.87337894 119.18951977 115.19612595 72.426930946 121.21792213 73.72490875 
82.539969816 124.64914051 114.9632899 134.92234105 115.76128923 106.83086033 59.367476783 86.771580306 76.520236768 
74.398964338 147.30105548 89.309772467 139.20465552 113.1138626 129.48113035 100.26370931 107.69038846 99.251769382 
69.52429878 122.24521153 78.077236244 52.431596643 114.54722959 67.711067941 144.04585844 145.3928577 141.48643902 
87.015870026 51.545661653 142.83185626 92.818414832 146.6654819 146.36199771 135.30094555 79.444889207 88.50977286 
135.11366715 81.692200516 66.949274669 105.68012625 143.61547742 119.60297967 107.00611701 59.717649377 111.50072267 
149.00538501 64.008401524 101.83296524 137.73730719 124.07686178 119.7015741 120.2484084 85.949115122 79.359184426 
130.93611555 131.01133947 136.70723186 141.32405526 101.13423989 100.15162947 129.8295179 114.99639308 120.19668773 
129.57926694 139.00053418 83.799515685 87.558295264 59.398193984 107.8280141 53.59422738 96.559801813 104.26446347 
78.654125213 109.08332606 53.050024994 53.734818875 132.26005607 86.019064141 62.706051265 102.22432601 126.99935531 
71.58210275 112.28904758 58.534746499 55.168172117 103.13546316 104.06351216 113.74299015 122.60913337 147.58520795 
101.63003483 82.295647294 129.51861948 77.083225126 93.897142071 57.845638134 52.535074342 146.26484147 133.59801205 
119.59742061 90.895294441 67.329432007 65.643704267 75.024289816 104.92266647 121.45959227 116.01973767 77.993389695 
145.48652807 123.78969167 105.43540525 111.17207462 91.960006243 74.77309895 85.597267865 125.78461105 51.439348863 
61.607264051 54.600264202 54.072880232 135.5460584 120.36578594 97.417382909 59.783416065 99.161587512 97.347177078 
67.320186991 93.385164924 89.85047344 111.58500981 113.50936509 54.530400977 87.461261463 112.58599157 100.31362586 
135.64898412 115.86936316 66.293442708 57.05687474 114.24192782 52.651131054 108.57755813 144.02302414 107.54741779 
88.816992621 114.32882184 95.825289049 104.56167893 144.14648088 88.61026378 146.11905638 140.5350642 69.579113479 
56.936130088 60.077800138 51.822182565 59.444296076 118.30067734 57.118864846 81.897563029 134.4875311 52.327193574 
131.44684826 78.185477477 61.816482762 119.67371654 112.89428468 137.74720135 123.50710438 130.34809304 78.203457257 
67.743954378 125.06147516 130.68347393 149.0505142 91.261767691 87.201808579 127.64129607 84.080354025 143.07573256 
135.84127518 92.899402738 125.08710678 125.45428741 60.312386884 140.25529067 100.52523724 132.64574661 82.004960103 
139.55232285 88.920167873 51.083765148 140.53819764 59.128667679 81.931363759 145.00619671 145.06071469 107.34378881 
113.18372122 94.844552198 79.32107717 82.866454537 117.25184561 125.23745294 129.15790437 128.96181428 59.120610305 
99.44203047 55.755876002 104.95288823 94.153050137 138.77041828 85.091501255 61.706701643 64.299168205 126.15106317 
111.82180633 60.112267612 58.410680611 120.09691315 57.276300636 132.18600593 120.62422272 58.134878064 58.483771409 
148.66395785 87.427079576 87.064214707 131.27995673 144.72485774 148.60010638 125.33781853 87.625958553 58.35007167 
127.71469159 105.84042497 92.422200925 140.63543851 61.119748231 99.262510429 51.135364477 96.866064199 55.630327568 
61.881791627 61.752624678 114.92103021 124.60448793 108.33687651 146.21725485 87.487057952 78.571208628 136.85991282 
72.359583852 146.32225394 51.215447469 146.98788267 54.315991195 139.11431137 102.77011091 149.29647961 57.379656474 
105.38542844 146.93025356 102.30978442 112.93986381 119.5748689 95.454106477 112.75580801 108.43143119 140.11580105 
54.544638034 78.096318959 145.04114841 139.02637839 95.565675279 112.01325978 77.738118298 68.812115972 96.369840494 
85.335222803 108.36561119 57.773463696 147.43948077 148.62107445 
