# vtk DataFile Version 5.1
vtk output
ASCII
DATASET UNSTRUCTURED_GRID
POINTS 726 double
0 0 0 1 0 0 2 0 0 
3 0 0 4 0 0 5 0 0 
6 0 0 7 0 0 8 0 0 
9 0 0 10 0 0 0 1 0 
1 1 0 2 1 0 3 1 0 
4 1 0 5 1 0 6 1 0 
7 1 0 8 1 0 9 1 0 
10 1 0 0 2 0 1 2 0 
2 2 0 3 2 0 4 2 0 
5 2 0 6 2 0 7 2 0 
8 2 0 9 2 0 10 2 0 
0 3 0 1 3 0 2 3 0 
3 3 0 4 3 0 5 3 0 
6 3 0 7 3 0 8 3 0 
9 3 0 10 3 0 0 4 0 
1 4 0 2 4 0 3 4 0 
4 4 0 5 4 0 6 4 0 
7 4 0 8 4 0 9 4 0 
10 4 0 0 5 0 1 5 0 
2 5 0 3 5 0 4 5 0 
5 5 0 6 5 0 7 5 0 
8 5 0 9 5 0 10 5 0 
0 6 0 1 6 0 2 6 0 
3 6 0 4 6 0 5 6 0 
6 6 0 7 6 0 8 6 0 
9 6 0 10 6 0 0 7 0 
1 7 0 2 7 0 3 7 0 
4 7 0 5 7 0 6 7 0 
7 7 0 8 7 0 9 7 0 
10 7 0 0 8 0 1 8 0 
2 8 0 3 8 0 4 8 0 
5 8 0 6 8 0 7 8 0 
8 8 0 9 8 0 10 8 0 
0 9 0 1 9 0 2 9 0 
3 9 0 4 9 0 5 9 0 
6 9 0 7 9 0 8 9 0 
9 9 0 10 9 0 0 10 0 
1 10 0 2 10 0 3 10 0 
4 10 0 5 10 0 6 10 0 
7 10 0 8 10 0 9 10 0 
10 10 0 0 0 1 1 0 1 
2 0 1 3 0 1 4 0 1 
5 0 1 6 0 1 7 0 1 
8 0 1 9 0 1 10 0 1 
0 1 1 1 1 1 2 1 1 
3 1 1 4 1 1 5 1 1 
6 1 1 7 1 1 8 1 1 
9 1 1 10 1 1 0 2 1 
1 2 1 2 2 1 3 2 1 
4 2 1 5 2 1 6 2 1 
7 2 1 8 2 1 9 2 1 
10 2 1 0 3 1 1 3 1 
2 3 1 3 3 1 4 3 1 
5 3 1 6 3 1 7 3 1 
8 3 1 9 3 1 10 3 1 
0 4 1 1 4 1 2 4 1 
3 4 1 4 4 1 5 4 1 
6 4 1 7 4 1 8 4 1 
9 4 1 10 4 1 0 5 1 
1 5 1 2 5 1 3 5 1 
4 5 1 5 5 1 6 5 1 
7 5 1 8 5 1 9 5 1 
10 5 1 0 6 1 1 6 1 
2 6 1 3 6 1 4 6 1 
5 6 1 6 6 1 7 6 1 
8 6 1 9 6 1 10 6 1 
0 7 1 1 7 1 2 7 1 
3 7 1 4 7 1 5 7 1 
6 7 1 7 7 1 8 7 1 
9 7 1 10 7 1 0 8 1 
1 8 1 2 8 1 3 8 1 
4 8 1 5 8 1 6 8 1 
7 8 1 8 8 1 9 8 1 
10 8 1 0 9 1 1 9 1 
2 9 1 3 9 1 4 9 1 
5 9 1 6 9 1 7 9 1 
8 9 1 9 9 1 10 9 1 
0 10 1 1 10 1 2 10 1 
3 10 1 4 10 1 5 10 1 
6 10 1 7 10 1 8 10 1 
9 10 1 10 10 1 0 0 2 
1 0 2 2 0 2 3 0 2 
4 0 2 5 0 2 6 0 2 
7 0 2 8 0 2 9 0 2 
10 0 2 0 1 2 1 1 2 
2 1 2 3 1 2 4 1 2 
5 1 2 6 1 2 7 1 2 
8 1 2 9 1 2 10 1 2 
0 2 2 1 2 2 2 2 2 
3 2 2 4 2 2 5 2 2 
6 2 2 7 2 2 8 2 2 
9 2 2 10 2 2 0 3 2 
1 3 2 2 3 2 3 3 2 
4 3 2 5 3 2 6 3 2 
7 3 2 8 3 2 9 3 2 
10 3 2 0 4 2 1 4 2 
2 4 2 3 4 2 4 4 2 
5 4 2 6 4 2 7 4 2 
8 4 2 9 4 2 10 4 2 
0 5 2 1 5 2 2 5 2 
3 5 2 4 5 2 5 5 2 
6 5 2 7 5 2 8 5 2 
9 5 2 10 5 2 0 6 2 
1 6 2 2 6 2 3 6 2 
4 6 2 5 6 2 6 6 2 
7 6 2 8 6 2 9 6 2 
10 6 2 0 7 2 1 7 2 
2 7 2 3 7 2 4 7 2 
5 7 2 6 7 2 7 7 2 
8 7 2 9 7 2 10 7 2 
0 8 2 1 8 2 2 8 2 
3 8 2 4 8 2 5 8 2 
6 8 2 7 8 2 8 8 2 
9 8 2 10 8 2 0 9 2 
1 9 2 2 9 2 3 9 2 
4 9 2 5 9 2 6 9 2 
7 9 2 8 9 2 9 9 2 
10 9 2 0 10 2 1 10 2 
2 10 2 3 10 2 4 10 2 
5 10 2 6 10 2 7 10 2 
8 10 2 9 10 2 10 10 2 
0 0 3 1 0 3 2 0 3 
3 0 3 4 0 3 5 0 3 
6 0 3 7 0 3 8 0 3 
9 0 3 10 0 3 0 1 3 
1 1 3 2 1 3 3 1 3 
4 1 3 5 1 3 6 1 3 
7 1 3 8 1 3 9 1 3 
10 1 3 0 2 3 1 2 3 
2 2 3 3 2 3 4 2 3 
5 2 3 6 2 3 7 2 3 
8 2 3 9 2 3 10 2 3 
0 3 3 1 3 3 2 3 3 
3 3 3 4 3 3 5 3 3 
6 3 3 7 3 3 8 3 3 
9 3 3 10 3 3 0 4 3 
1 4 3 2 4 3 3 4 3 
4 4 3 5 4 3 6 4 3 
7 4 3 8 4 3 9 4 3 
10 4 3 0 5 3 1 5 3 
2 5 3 3 5 3 4 5 3 
5 5 3 6 5 3 7 5 3 
8 5 3 9 5 3 10 5 3 
0 6 3 1 6 3 2 6 3 
3 6 3 4 6 3 5 6 3 
6 6 3 7 6 3 8 6 3 
9 6 3 10 6 3 0 7 3 
1 7 3 2 7 3 3 7 3 
4 7 3 5 7 3 6 7 3 
7 7 3 8 7 3 9 7 3 
10 7 3 0 8 3 1 8 3 
2 8 3 3 8 3 4 8 3 
5 8 3 6 8 3 7 8 3 
8 8 3 9 8 3 10 8 3 
0 9 3 1 9 3 2 9 3 
3 9 3 4 9 3 5 9 3 
6 9 3 7 9 3 8 9 3 
9 9 3 10 9 3 0 10 3 
1 10 3 2 10 3 3 10 3 
4 10 3 5 10 3 6 10 3 
7 10 3 8 10 3 9 10 3 
10 10 3 0 0 4 1 0 4 
2 0 4 3 0 4 4 0 4 
5 0 4 6 0 4 7 0 4 
8 0 4 9 0 4 10 0 4 
0 1 4 1 1 4 2 1 4 
3 1 4 4 1 4 5 1 4 
6 1 4 7 1 4 8 1 4 
9 1 4 10 1 4 0 2 4 
1 2 4 2 2 4 3 2 4 
4 2 4 5 2 4 6 2 4 
7 2 4 8 2 4 9 2 4 
10 2 4 0 3 4 1 3 4 
2 3 4 3 3 4 4 3 4 
5 3 4 6 3 4 7 3 4 
8 3 4 9 3 4 10 3 4 
0 4 4 1 4 4 2 4 4 
3 4 4 4 4 4 5 4 4 
6 4 4 7 4 4 8 4 4 
9 4 4 10 4 4 0 5 4 
1 5 4 2 5 4 3 5 4 
4 5 4 5 5 4 6 5 4 
7 5 4 8 5 4 9 5 4 
10 5 4 0 6 4 1 6 4 
2 6 4 3 6 4 4 6 4 
5 6 4 6 6 4 7 6 4 
8 6 4 9 6 4 10 6 4 
0 7 4 1 7 4 2 7 4 
3 7 4 4 7 4 5 7 4 
6 7 4 7 7 4 8 7 4 
9 7 4 10 7 4 0 8 4 
1 8 4 2 8 4 3 8 4 
4 8 4 5 8 4 6 8 4 
7 8 4 8 8 4 9 8 4 
10 8 4 0 9 4 1 9 4 
2 9 4 3 9 4 4 9 4 
5 9 4 6 9 4 7 9 4 
8 9 4 9 9 4 10 9 4 
0 10 4 1 10 4 2 10 4 
3 10 4 4 10 4 5 10 4 
6 10 4 7 10 4 8 10 4 
9 10 4 10 10 4 0 0 5 
1 0 5 2 0 5 3 0 5 
4 0 5 5 0 5 6 0 5 
7 0 5 8 0 5 9 0 5 
10 0 5 0 1 5 1 1 5 
2 1 5 3 1 5 4 1 5 
5 1 5 6 1 5 7 1 5 
8 1 5 9 1 5 10 1 5 
0 2 5 1 2 5 2 2 5 
3 2 5 4 2 5 5 2 5 
6 2 5 7 2 5 8 2 5 
9 2 5 10 2 5 0 3 5 
1 3 5 2 3 5 3 3 5 
4 3 5 5 3 5 6 3 5 
7 3 5 8 3 5 9 3 5 
10 3 5 0 4 5 1 4 5 
2 4 5 3 4 5 4 4 5 
5 4 5 6 4 5 7 4 5 
8 4 5 9 4 5 10 4 5 
0 5 5 1 5 5 2 5 5 
3 5 5 4 5 5 5 5 5 
6 5 5 7 5 5 8 5 5 
9 5 5 10 5 5 0 6 5 
1 6 5 2 6 5 3 6 5 
4 6 5 5 6 5 6 6 5 
7 6 5 8 6 5 9 6 5 
10 6 5 0 7 5 1 7 5 
2 7 5 3 7 5 4 7 5 
5 7 5 6 7 5 7 7 5 
8 7 5 9 7 5 10 7 5 
0 8 5 1 8 5 2 8 5 
3 8 5 4 8 5 5 8 5 
6 8 5 7 8 5 8 8 5 
9 8 5 10 8 5 0 9 5 
1 9 5 2 9 5 3 9 5 
4 9 5 5 9 5 6 9 5 
7 9 5 8 9 5 9 9 5 
10 9 5 0 10 5 1 10 5 
2 10 5 3 10 5 4 10 5 
5 10 5 6 10 5 7 10 5 
8 10 5 9 10 5 10 10 5 

CELLS 501 4000
OFFSETS vtktypeint64
0 8 16 24 32 40 48 56 64 
72 80 88 96 104 112 120 128 136 
144 152 160 168 176 184 192 200 208 
216 224 232 240 248 256 264 272 280 
288 296 304 312 320 328 336 344 352 
360 368 376 384 392 400 408 416 424 
432 440 448 456 464 472 480 488 496 
504 512 520 528 536 544 552 560 568 
576 584 592 600 608 616 624 632 640 
648 656 664 672 680 688 696 704 712 
720 728 736 744 752 760 768 776 784 
792 800 808 816 824 832 840 848 856 
864 872 880 888 896 904 912 920 928 
936 944 952 960 968 976 984 992 1000 
1008 1016 1024 1032 1040 1048 1056 1064 1072 
1080 1088 1096 1104 1112 1120 1128 1136 1144 
1152 1160 1168 1176 1184 1192 1200 1208 1216 
1224 1232 1240 1248 1256 1264 1272 1280 1288 
1296 1304 1312 1320 1328 1336 1344 1352 1360 
1368 1376 1384 1392 1400 1408 1416 1424 1432 
1440 1448 1456 1464 1472 1480 1488 1496 1504 
1512 1520 1528 1536 1544 1552 1560 1568 1576 
1584 1592 1600 1608 1616 1624 1632 1640 1648 
1656 1664 1672 1680 1688 1696 1704 1712 1720 
1728 1736 1744 1752 1760 1768 1776 1784 1792 
1800 1808 1816 1824 1832 1840 1848 1856 1864 
1872 1880 1888 1896 1904 1912 1920 1928 1936 
1944 1952 1960 1968 1976 1984 1992 2000 2008 
2016 2024 2032 2040 2048 2056 2064 2072 2080 
2088 2096 2104 2112 2120 2128 2136 2144 2152 
2160 2168 2176 2184 2192 2200 2208 2216 2224 
2232 2240 2248 2256 2264 2272 2280 2288 2296 
2304 2312 2320 2328 2336 2344 2352 2360 2368 
2376 2384 2392 2400 2408 2416 2424 2432 2440 
2448 2456 2464 2472 2480 2488 2496 2504 2512 
2520 2528 2536 2544 2552 2560 2568 2576 2584 
2592 2600 2608 2616 2624 2632 2640 2648 2656 
2664 2672 2680 2688 2696 2704 2712 2720 2728 
2736 2744 2752 2760 2768 2776 2784 2792 2800 
2808 2816 2824 2832 2840 2848 2856 2864 2872 
2880 2888 2896 2904 2912 2920 2928 2936 2944 
2952 2960 2968 2976 2984 2992 3000 3008 3016 
3024 3032 3040 3048 3056 3064 3072 3080 3088 
3096 3104 3112 3120 3128 3136 3144 3152 3160 
3168 3176 3184 3192 3200 3208 3216 3224 3232 
3240 3248 3256 3264 3272 3280 3288 3296 3304 
3312 3320 3328 3336 3344 3352 3360 3368 3376 
3384 3392 3400 3408 3416 3424 3432 3440 3448 
3456 3464 3472 3480 3488 3496 3504 3512 3520 
3528 3536 3544 3552 3560 3568 3576 3584 3592 
3600 3608 3616 3624 3632 3640 3648 3656 3664 
3672 3680 3688 3696 3704 3712 3720 3728 3736 
3744 3752 3760 3768 3776 3784 3792 3800 3808 
3816 3824 3832 3840 3848 3856 3864 3872 3880 
3888 3896 3904 3912 3920 3928 3936 3944 3952 
3960 3968 3976 3984 3992 4000 
CONNECTIVITY vtktypeint64
0 1 12 11 121 122 133 132 1 
2 13 12 122 123 134 133 2 3 
14 13 123 124 135 134 3 4 15 
14 124 125 136 135 4 5 16 15 
125 126 137 136 5 6 17 16 126 
127 138 137 6 7 18 17 127 128 
139 138 7 8 19 18 128 129 140 
139 8 9 20 19 129 130 141 140 
9 10 21 20 130 131 142 141 11 
12 23 22 132 133 144 143 12 13 
24 23 133 134 145 144 13 14 25 
24 134 135 146 145 14 15 26 25 
135 136 147 146 15 16 27 26 136 
137 148 147 16 17 28 27 137 138 
149 148 17 18 29 28 138 139 150 
149 18 19 30 29 139 140 151 150 
19 20 31 30 140 141 152 151 20 
21 32 31 141 142 153 152 22 23 
34 33 143 144 155 154 23 24 35 
34 144 145 156 155 24 25 36 35 
145 146 157 156 25 26 37 36 146 
147 158 157 26 27 38 37 147 148 
159 158 27 28 39 38 148 149 160 
159 28 29 40 39 149 150 161 160 
29 30 41 40 150 151 162 161 30 
31 42 41 151 152 163 162 31 32 
43 42 152 153 164 163 33 34 45 
44 154 155 166 165 34 35 46 45 
155 156 167 166 35 36 47 46 156 
157 168 167 36 37 48 47 157 158 
169 168 37 38 49 48 158 159 170 
169 38 39 50 49 159 160 171 170 
39 40 51 50 160 161 172 171 40 
41 52 51 161 162 173 172 41 42 
53 52 162 163 174 173 42 43 54 
53 163 164 175 174 44 45 56 55 
165 166 177 176 45 46 57 56 166 
167 178 177 46 47 58 57 167 168 
179 178 47 48 59 58 168 169 180 
179 48 49 60 59 169 170 181 180 
49 50 61 60 170 171 182 181 50 
51 62 61 171 172 183 182 51 52 
63 62 172 173 184 183 52 53 64 
63 173 174 185 184 53 54 65 64 
174 175 186 185 55 56 67 66 176 
177 188 187 56 57 68 67 177 178 
189 188 57 58 69 68 178 179 190 
189 58 59 70 69 179 180 191 190 
59 60 71 70 180 181 192 191 60 
61 72 71 181 182 193 192 61 62 
73 72 182 183 194 193 62 63 74 
73 183 184 195 194 63 64 75 74 
184 185 196 195 64 65 76 75 185 
186 197 196 66 67 78 77 187 188 
199 198 67 68 79 78 188 189 200 
199 68 69 80 79 189 190 201 200 
69 70 81 80 190 191 202 201 70 
71 82 81 191 192 203 202 71 72 
83 82 192 193 204 203 72 73 84 
83 193 194 205 204 73 74 85 84 
194 195 206 205 74 75 86 85 195 
196 207 206 75 76 87 86 196 197 
208 207 77 78 89 88 198 199 210 
209 78 79 90 89 199 200 211 210 
79 80 91 90 200 201 212 211 80 
81 92 91 201 202 213 212 81 82 
93 92 202 203 214 213 82 83 94 
93 203 204 215 214 83 84 95 94 
204 205 216 215 84 85 96 95 205 
206 217 216 85 86 97 96 206 207 
218 217 86 87 98 97 207 208 219 
218 88 89 100 99 209 210 221 220 
89 90 101 100 210 211 222 221 90 
91 102 101 211 212 223 222 91 92 
103 102 212 213 224 223 92 93 104 
103 213 214 225 224 93 94 105 104 
214 215 226 225 94 95 106 105 215 
216 227 226 95 96 107 106 216 217 
228 227 96 97 108 107 217 218 229 
228 97 98 109 108 218 219 230 229 
99 100 111 110 220 221 232 231 100 
101 112 111 221 222 233 232 101 102 
[...]
CELL_DATA 500
SCALARS Pressure double
LOOKUP_TABLE default
1037.4540119 1095.0714306 1073.1993942 1059.8658484 1015.601864 1015.599452 1005.8083612 1086.6176146 1060.1115012 
1070.8072578 1002.0584494 1096.9909852 1083.2442641 1021.2339111 1018.1824967 1018.340451 1030.4242243 1052.4756432 
1043.1945019 1029.122914 1061.1852895 1013.9493861 1029.2144649 1036.6361843 1045.6069984 1078.5175961 1019.9673782 
1051.4234438 1059.2414569 1004.6450413 1060.7544852 1017.0524124 1006.5051593 1094.8885537 1096.5632033 1080.8397348 
1030.4613769 1009.7672114 1068.4233027 1044.0152494 1012.2038235 1049.517691 1003.4388521 1090.9320402 1025.8779982 
1066.2522284 1031.1711076 1052.0068021 1054.6710279 1018.4854456 1096.9584628 1077.5132823 1093.9498942 1089.482735 
1059.7899979 1092.1874235 1008.8492502 1019.5982862 1004.5227289 1032.5330331 1038.867729 1027.1349032 1082.8737509 
1035.6753327 1028.093451 1054.2696083 1014.0924225 1080.2196981 1007.4550644 1098.6886937 1077.2244769 1019.8715682 
1000.5522117 1081.5461428 1070.6857344 1072.9007168 1077.1270347 1007.4044652 1035.8465729 1011.586906 1086.3103426 
1062.3298127 1033.0898025 1006.355835 1031.0982322 1032.5183322 1072.9606178 1063.7557471 1088.7212743 1047.2214925 
1011.9594246 1071.3244787 1076.0785049 1056.1277198 1077.096718 1049.3795596 1052.2732829 1042.7541018 1002.5419127 
1010.7891427 1003.1429186 1063.6410411 1031.4355981 1050.8570691 1090.7566474 1024.9292229 1041.0382923 1075.5551139 
1022.8798165 1007.697991 1028.9751453 1016.1221287 1092.9697652 1080.812038 1063.3403757 1087.146059 1080.3672077 
1018.6570059 1089.2558998 1053.9342242 1080.7440155 1089.60913 1031.8003475 1011.0051925 1022.7935163 1042.7107789 
1081.8014766 1086.0730583 1000.6952131 1051.0747303 1041.7411003 1022.210781 1011.9865367 1033.7615171 1094.2909704 
1032.3202932 1051.8790622 1070.3018959 1036.3629602 1097.1782083 1096.2447295 1025.1782296 1049.7248506 1030.087831 
1028.4840494 1003.6886947 1060.9564334 1050.2679023 1005.1478751 1027.8646464 1090.8265886 1023.9561891 1014.4894872 
1048.945276 1098.5650454 1024.2055272 1067.2135547 1076.1619615 1023.7637544 1072.8216349 1036.7783133 1063.2305831 
1063.3529711 1053.5774684 1009.028977 1083.5302496 1032.0780065 1018.651851 1004.0775142 1059.0892943 1067.7564362 
1001.6587829 1051.2093058 1022.6495775 1064.517279 1017.4366429 1069.0937738 1038.6735346 1093.6729989 1013.7520944 
1034.1066351 1011.3473521 1092.4693618 1087.7339353 1025.7941628 1065.9984046 1081.72222 1055.5200812 1052.9650578 
1024.1852291 1009.3102768 1089.7215758 1090.0418057 1063.3101457 1033.9029791 1034.9209575 1072.5955679 1089.711026 
1088.7086424 1077.9875546 1064.2031646 1008.4139965 1016.1628714 1089.8554189 1060.642906 1000.9197052 1010.1471543 
1066.3501769 1000.5061584 1016.0808051 1054.8733789 1069.1895198 1065.196126 1022.4269309 1071.2179221 1023.7249087 
1032.5399698 1074.6491405 1064.9632899 1084.922341 1065.7612892 1056.8308603 1009.3674768 1036.7715803 1026.5202368 
1024.3989643 1097.3010555 1039.3097725 1089.2046555 1063.1138626 1079.4811304 1050.2637093 1057.6903885 1049.2517694 
1019.5242988 1072.2452115 1028.0772362 1002.4315966 1064.5472296 1017.7110679 1094.0458584 1095.3928577 1091.486439 
1037.01587 1001.5456617 1092.8318563 1042.8184148 1096.6654819 1096.3619977 1085.3009455 1029.4448892 1038.5097729 
1085.1136672 1031.6922005 1016.9492747 1055.6801262 1093.6154774 1069.6029797 1057.006117 1009.7176494 1061.5007227 
1099.005385 1014.0084015 1051.8329652 1087.7373072 1074.0768618 1069.7015741 1070.2484084 1035.9491151 1029.3591844 
1080.9361155 1081.0113395 1086.7072319 1091.3240553 1051.1342399 1050.1516295 1079.8295179 1064.9963931 1070.1966877 
1079.5792669 1089.0005342 1033.7995157 1037.5582953 1009.398194 1057.8280141 1003.5942274 1046.5598018 1054.2644635 
1028.6541252 1059.0833261 1003.050025 1003.7348189 1082.2600561 1036.0190641 1012.7060513 1052.224326 1076.9993553 
1021.5821027 1062.2890476 1008.5347465 1005.1681721 1053.1354632 1054.0635122 1063.7429901 1072.6091334 1097.5852079 
1051.6300348 1032.2956473 1079.5186195 1027.0832251 1043.8971421 1007.8456381 1002.5350743 1096.2648415 1083.5980121 
1069.5974206 1040.8952944 1017.329432 1015.6437043 1025.0242898 1054.9226665 1071.4595923 1066.0197377 1027.9933897 
1095.4865281 1073.7896917 1055.4354053 1061.1720746 1041.9600062 1024.773099 1035.5972679 1075.784611 1001.4393489 
1011.6072641 1004.6002642 1004.0728802 1085.5460584 1070.3657859 1047.4173829 1009.7834161 1049.1615875 1047.3471771 
1017.320187 1043.3851649 1039.8504734 1061.5850098 1063.5093651 1004.530401 1037.4612615 1062.5859916 1050.3136259 
1085.6489841 1065.8693632 1016.2934427 1007.0568747 1064.2419278 1002.6511311 1058.5775581 1094.0230241 1057.5474178 
1038.8169926 1064.3288218 1045.825289 1054.5616789 1094.1464809 1038.6102638 1096.1190564 1090.5350642 1019.5791135 
1006.9361301 1010.0778001 1001.8221826 1009.4442961 1068.3006773 1007.1188648 1031.897563 1084.4875311 1002.3271936 
1081.4468483 1028.1854775 1011.8164828 1069.6737165 1062.8942847 1087.7472014 1073.5071044 1080.348093 1028.2034573 
1017.7439544 1075.0614752 1080.6834739 1099.0505142 1041.2617677 1037.2018086 1077.6412961 1034.080354 1093.0757326 
1085.8412752 1042.8994027 1075.0871068 1075.4542874 1010.3123869 1090.2552907 1050.5252372 1082.6457466 1032.0049601 
1089.5523228 1038.9201679 1001.0837651 1090.5381976 1009.1286677 1031.9313638 1095.0061967 1095.0607147 1057.3437888 
1063.1837212 1044.8445522 1029.3210772 1032.8664545 1067.2518456 1075.2374529 1079.1579044 1078.9618143 1009.1206103 
1049.4420305 1005.755876 1054.9528882 1044.1530501 1088.7704183 1035.0915013 1011.7067016 1014.2991682 1076.1510632 
1061.8218063 1010.1122676 1008.4106806 1070.0969131 1007.2763006 1082.1860059 1070.6242227 1008.1348781 1008.4837714 
1098.6639579 1037.4270796 1037.0642147 1081.2799567 1094.7248577 1098.6001064 1075.3378185 1037.6259586 1008.3500717 
1077.7146916 1055.840425 1042.4222009 1090.6354385 1011.1197482 1049.2625104 1001.1353645 1046.8660642 1005.6303276 
1011.8817916 1011.7526247 1064.9210302 1074.6044879 1058.3368765 1096.2172548 1037.487058 1028.5712086 1086.8599128 
1022.3595839 1096.3222539 1001.2154475 1096.9878827 1004.3159912 1089.1143114 1052.7701109 1099.2964796 1007.3796565 
1055.3854284 1096.9302536 1052.3097844 1062.9398638 1069.5748689 1045.4541065 1062.755808 1058.4314312 1090.115801 
1004.544638 1028.096319 1095.0411484 1089.0263784 1045.5656753 1062.0132598 1027.7381183 1018.812116 1046.3698405 
1035.3352228 1058.3656112 1007.7734637 1097.4394808 1098.6210744 
FIELD FieldData 2
Saturation 1 500 double
0.69816171402 0.53609636634 0.30952761629 0.81379501971 0.68473117255 0.16261693934 0.91092718449 0.82253724292 0.94979991329 
0.72571950839 0.61341519594 0.41824303629 0.93272848335 0.8660638895 0.045218670106 0.026366974497 0.37646336688 0.81055333078 
0.98727612931 0.1504168911 0.59413071535 0.38089085663 0.96991439781 0.84211892314 0.83832870471 0.46869315979 0.41481950234 
0.27340707193 0.056375496651 0.86472237626 0.81290100913 0.99971767329 0.99663683707 0.5554317056 0.76898741518 0.94476572988 
0.84964739068 0.24734810174 0.45054413531 0.12915941515 0.95405102726 0.60617463445 0.2286428055 0.67170068441 0.61812824046 
0.35816271803 0.1135575922 0.67157319559 0.5203077009 0.77231839174 0.52016350111 0.85218150032 0.55190683877 0.56093797154 
0.87665360266 0.40348286621 0.13401522845 0.028782676313 0.75513725567 0.62030955135 0.7040797681 0.21296416151 0.13637147559 
0.014544665668 0.35058755881 0.58991768685 0.3922440451 0.43747492202 0.90415869449 0.34825546702 0.51398948916 0.78365301274 
0.39654278232 0.62208670023 0.86236370875 0.94952062366 0.14707348093 0.92658762516 0.49211629308 0.2582443883 0.45913575624 
0.98003257529 0.49261809399 0.32875161029 0.63340085432 0.24014561878 0.075863328109 0.12887972191 0.12804583896 0.15190269351 
0.13882717265 0.6408747448 0.1818800844 0.34566728332 0.89678840991 0.47396164026 0.66755773852 0.1723198712 0.19228901881 
0.040868616266 0.16893506307 0.27859033903 0.17701048428 0.088702533757 0.1206358711 0.46077876803 0.20633371841 0.36426986105 
0.50341727085 0.69039482863 0.039312139841 0.79941039891 0.62790038949 0.081759031949 0.87357862411 0.92087240053 0.061077959855 
0.27687764815 0.80620127979 0.74825969038 0.18452101936 0.20934932334 0.37047210279 0.48452298519 0.61825477153 0.36891363957 
0.46253471613 0.74747093813 0.036683202891 0.25243694434 0.71334958588 0.89520683769 0.51167744212 0.53211348527 0.10717201134 
0.44741236682 0.53261726646 0.24247050363 0.26924323095 0.3772841631 0.020071197778 0.32207916558 0.211448007 0.32749735218 
0.11976213182 0.89052728074 0.59359245355 0.67910231914 0.78917123861 0.49844219893 0.086920288087 0.53710654182 0.58684111802 
0.74543947418 0.43165954623 0.1275803028 0.2837759058 0.3630822964 0.64591724133 0.57077830467 0.3560967259 0.98651524879 
0.60577481936 0.23722679174 0.10178247262 0.15285913918 0.24595772838 0.16068137326 0.18656702405 0.28509516869 0.17337359529 
0.89676542463 0.080233745662 0.52451138957 0.41039682699 0.98237861691 0.11203890217 0.39785559905 0.96947043328 0.86550712589 
0.81707207095 0.25790282704 0.17088758739 0.66864321992 0.92937598913 0.55676289301 0.57161268947 0.27997909366 0.76949293319 
0.18704374856 0.3236792364 0.42543643862 0.50761037868 0.24240973242 0.11483682474 0.61062004244 0.28863055324 0.58123822142 
0.15436271527 0.48114010185 0.53258943255 0.051823536822 0.33660427819 0.13441467694 0.063374970473 0.98996023239 0.32235384497 
0.80987444585 0.25464065476 0.68150272222 0.76022785989 0.59563874061 0.47157618855 0.41184091415 0.34886826654 0.92952914425 
0.83061940779 0.96502691067 0.12429722349 0.7308674752 0.93834045682 0.18123306617 0.066496267367 0.74112064929 0.57447311318 
0.84182877676 0.13977237663 0.79526731186 0.20162732005 0.16365594287 0.16426579793 0.81457472023 0.6651972207 0.52306542477 
0.35883048412 0.87720054081 0.39244510742 0.81659943947 0.43913490857 0.37694442942 0.46267978567 0.30137787416 0.74760938018 
0.50272039009 0.23221269515 0.89957457327 0.38389122137 0.54355286111 0.90647211096 0.62423799591 0.11689804071 0.93983212361 
0.62770805307 0.33490561466 0.13927207266 0.79402518927 0.62007275593 0.53346109198 0.89389258305 0.78859721122 0.15167487973 
0.3117220678 0.24848913981 0.74394629257 0.033532434736 0.56988968487 0.76245868574 0.87676563676 0.34208174872 0.82125730467 
0.11063173696 0.84645229173 0.12748866233 0.39728729056 0.79729536578 0.14991742735 0.22925139523 0.72225256839 0.72003653655 
0.64114763289 0.69394844447 0.54272444335 0.25179905891 0.3456959935 0.1815977168 0.90845056133 0.58339179477 0.40085141676 
0.46200580364 0.94728333961 0.15335140312 0.58622983202 0.50588867888 0.61145423543 0.018110183821 0.87212390894 0.93211828248 
0.56513318359 0.69665082388 0.92249938118 0.70723863431 0.15253904291 0.57628836017 0.60671504638 0.4241306713 0.73644423562 
0.93436701477 0.92556851291 0.4508393714 0.11323804584 0.98484119896 0.83889808645 0.1246626812 0.92084188262 0.86989636206 
0.51883805713 0.59127543574 0.39900270387 0.054761638822 0.33519724165 0.8028534486 0.0046320230046 0.33349917169 0.39816869359 
0.53739560294 0.91985561641 0.34634599437 0.3469532019 0.73750124811 0.45221794089 0.22460482294 0.45243951613 0.14085702038 
0.17638698651 0.49836777274 0.4189254495 0.91484590107 0.36239389912 0.58058835028 0.63226428792 0.013094456588 0.66353737202 
0.17803596687 0.96107031747 0.14866272775 0.41462412373 0.085349668079 0.99687425185 0.50219501033 0.59538501732 0.067076477388 
0.7499604704 0.2099055931 0.89805428944 0.20513964048 0.19068772066 0.036549667848 0.47206694511 0.56484113326 0.065708639428 
0.7755276167 0.45328883475 0.52439026933 0.44076274694 0.40076306088 0.55964033131 0.15524024593 0.1819281305 0.86178562101 
0.94611546213 0.37330931628 0.27074467314 0.64399954324 0.4087341711 0.02538635566 0.15615259737 0.71597222885 0.65892394191 
0.027095992503 0.22197216193 0.23107479659 0.6718927436 0.019710537754 0.10410858198 0.79991608537 0.17854466205 0.65274610785 
0.23818278105 0.099441392759 0.243172191 0.72226693186 0.85569646811 0.83021986457 0.39718352962 0.66808513657 0.20498429542 
0.29314773026 0.89633581852 0.013001923511 0.085508530854 0.20788625515 0.026532203874 0.18143543509 0.58304156097 0.42142455059 
0.89267171108 0.81744356174 0.3418173517 0.25942343343 0.37969240817 0.59029494251 0.26806364082 0.62414890785 0.40941165219 
0.55204718085 0.43612652914 0.29446575954 0.94845330696 0.76360579416 0.14011317577 0.8684679759 0.48743119825 0.89455222689 
0.79985525595 0.42521350447 0.02246930832 0.26867735938 0.54163421466 0.63347821983 0.25788768543 0.13935607407 0.8349302368 
0.9844021807 0.5256901823 0.17167928585 0.27230732652 0.018390676547 0.91429880656 0.11775108289 0.57651647551 0.27405522069 
0.55417800252 0.65142038835 0.82974180371 0.20642127176 0.010995828658 0.13688563007 0.90001864185 0.87389007756 0.59741310217 
0.60051686043 0.66503667455 0.17537127862 0.91441194592 0.41877052489 0.38313852825 0.51891770528 0.046965966775 0.16628336876 
0.73803361643 0.082798667925 0.60315210947 0.24534910968 0.38929561404 0.28869373677 0.35567271646 0.71904590518 0.29712171562 
0.5664046403 0.4760504022 0.66367116536 0.93682973932 0.73257209721 0.21494037859 0.031183135061 0.2622640443 0.5950779307 
0.051425813484 0.4963662472 0.59684284892 0.33424389082 0.77091220375 0.10659825313 0.075137781736 0.7281887562 0.49549131621 
0.68840239643 0.4348273386 0.24640203324 0.81910231767 0.79941587897 0.69469647085 0.27214513723 0.59023066687 0.36097389694 
0.091582073327 0.91731357546 0.13681863092 0.95023735382 0.44600577296 
Permeability 1 500 double
68.513292884 104.19009474 137.29458359 123.22248864 130.65611479 115.87833667 119.22765645 134.91956516 74.966800886 
98.942496364 72.120944182 148.7668008 144.40593397 53.942681137 120.55751725 142.52483174 68.057534513 106.79452306 
141.54882976 53.394597859 119.74202672 79.734900737 142.43961954 147.10582452 144.42664891 97.421421666 136.2042651 
134.45493985 81.910047324 132.89154742 53.700763472 109.62698785 73.000883729 62.056688578 57.695320163 119.62887759 
83.987496377 122.47667715 56.53563408 81.529033783 103.94912924 129.07231648 81.875250293 112.58913764 138.59777482 
111.58631882 73.295947475 52.440078156 137.00988739 52.126941085 137.47016727 102.8937134 143.90676985 129.87832358 
149.79341105 85.071181545 126.71882889 90.193091361 97.98756203 112.75054632 137.36771142 148.40834692 126.82734139 
91.776678217 92.135700228 123.75823016 73.877714577 61.047411313 85.462215764 78.723899165 79.630812046 73.360775105 
54.209318964 51.787393473 148.77223897 92.777313374 88.432664716 117.96472827 71.825388787 144.9961184 128.63450144 
58.941100231 91.758077578 137.91183076 144.47320223 96.740151125 111.34113892 66.703394609 149.11686261 73.167170138 
144.27317741 114.9646649 110.77367949 101.2688511 73.066981172 67.652803201 72.048620907 68.643826214 127.95844736 
85.012525917 55.784267656 146.91026301 138.3785885 142.77522832 149.49078226 67.389524922 89.62420189 125.82384757 
119.60206181 65.389590634 131.5833125 72.444057184 72.381761482 103.69744229 109.29399348 108.00862078 59.14868374 
137.74608626 76.560004259 62.951492128 138.87480799 145.56514982 136.21276173 130.95160747 115.52419806 105.08573706 
58.698675991 90.845321307 87.268851701 75.975378376 122.34201137 99.587573508 58.104621591 72.018320195 118.32587637 
57.613085949 135.1206914 99.514652701 98.058657733 109.24077847 132.46809659 84.78092079 117.80161526 106.5731964 
76.702827017 137.86299864 129.74260216 115.84518347 135.05817291 136.7294201 120.83629767 133.70133284 119.74714617 
118.01407718 111.86113782 125.27166396 65.860510529 138.08707592 137.18435277 52.924728303 132.58167506 62.886986747 
83.511885426 124.35082563 66.075989605 131.79670241 133.2134178 100.74677338 50.638587172 78.703813317 111.69269184 
148.1186178 113.1813527 75.980358106 113.40057031 103.99853797 127.98453952 60.698063883 126.10279025 104.12665787 
146.29920039 84.187216604 113.26218931 143.20281055 60.250972799 143.72284872 118.78857223 56.783705911 80.096356695 
120.81720886 56.735060147 108.21704602 84.588305695 112.09155178 54.574203381 137.15368062 147.34889692 146.88778553 
124.96518317 63.008624013 125.82631959 52.458691646 52.212355153 82.361021915 98.86431904 127.04074178 118.32953766 
94.590270638 77.362666628 149.71245002 92.618130224 95.138702433 66.362382119 129.48095487 119.36822258 72.076961279 
58.238104562 118.04993021 115.45112143 77.3259527 145.08635623 65.105789178 93.233480104 144.36159202 91.972731693 
113.85259477 89.759439796 77.421520235 148.3977648 90.933400632 139.40992037 72.995460589 71.310470403 53.113408288 
115.16668254 86.852634372 136.43582498 97.320990669 146.81934279 68.55255157 136.8623168 127.65968528 127.09218446 
134.47832281 126.10239909 112.62203216 63.124487768 53.252617949 142.08478478 111.66503145 129.6537291 98.152235151 
61.730818896 62.51857922 118.55652872 93.03058949 70.05247267 99.159454674 56.420893708 108.19714019 76.899340444 
129.75591006 81.036195892 95.522014908 51.162053991 57.244688779 89.249355641 97.993883472 110.00205481 79.166257871 
119.49818861 136.01223972 127.98509889 53.961882535 98.050694726 60.493017842 74.204501586 148.66625933 64.24955429 
99.888815345 111.81557343 120.24649705 105.96486835 50.977084742 82.646130824 101.77116434 58.786649914 85.062693121 
53.320310879 57.857849716 89.69232762 63.271575404 106.75408483 118.94649691 130.05866991 70.015024424 66.748258226 
60.456784033 113.64302495 120.64757265 53.158614483 143.62122462 55.197128365 104.12963353 120.90605195 137.09691237 
121.40869321 130.17280831 83.945019254 131.48251137 58.011484638 139.48166561 104.75923762 131.729777 95.231828452 
114.35776952 102.64026609 123.15895218 58.162998203 56.035208399 74.710323401 65.954468011 137.17835666 71.921398736 
147.58652558 83.689579177 68.211791569 128.96985071 115.87077755 99.819571645 105.53635509 121.92017783 72.845474133 
149.63339161 147.47931621 115.03256863 69.954245093 118.02282424 57.219840898 53.065250221 75.768288851 96.262295674 
136.82725054 122.71690698 124.27065212 92.549333445 84.593499255 87.103876298 148.76495637 54.010919141 136.70314961 
107.86754086 93.861541919 122.52576604 98.666894142 137.34232381 140.0701864 92.172092687 77.682779724 109.23503286 
141.23633456 71.066218901 112.29665836 113.15602201 123.31130224 63.156768513 121.58249647 140.90325207 67.968310887 
73.754332492 147.1395094 68.097695271 135.43850934 99.227785645 74.72310744 137.07499013 94.5305255 101.48173539 
85.92333694 109.29508514 66.352387259 89.108153665 146.94123223 75.81334327 115.67366645 82.519006422 127.34731257 
63.087366072 146.98210451 95.378954138 73.605046335 57.349674733 66.975790509 101.97739486 83.700317643 132.88833659 
93.088752366 74.871427259 111.71449866 120.67772169 66.70419079 66.761921629 53.667142693 123.64020151 116.38045276 
97.463087575 134.4170449 130.5670153 108.53543644 136.82712805 70.584121004 61.19196194 76.974961152 55.708685609 
103.1169528 143.66056923 53.934354067 62.210991401 95.219902828 143.38750175 81.615610498 100.72348087 54.157285905 
64.834320096 148.6630123 146.51186964 50.493998093 145.18117854 113.91199378 136.79182945 95.473985563 101.55960286 
98.884658026 116.68642575 63.965125476 52.997358987 80.792994159 120.46807627 70.185345212 117.34324333 146.99120461 
59.390071579 117.26021182 94.37502193 136.81422544 67.714978945 119.26259522 133.81152896 144.46142195 118.32480283 
99.717476401 111.78472402 136.89049845 107.06097466 53.03870597 143.09486955 118.9526751 117.65133858 71.56751524 
115.88854702 89.386440565 115.1232977 60.659303031 115.78453046 149.94137258 54.821203886 147.71741842 90.690796072 
137.07534503 128.23854841 106.7016261 123.84492093 137.85155613 90.414032165 82.703316156 116.75933856 130.78459419 
126.22851348 129.78136489 93.558331481 131.78342162 62.020905537 104.4489098 50.57586605 82.45858299 86.646153487 